------------------------------------------------------------
          Invoking FHI-aims ...

          When using FHI-aims, please cite the following reference:

            Volker Blum, Ralf Gehrke, Felix Hanke, Paula Havu,
            Ville Havu, Xinguo Ren, Karsten Reuter, and Matthias Scheffler,
            'Ab Initio Molecular Simulations with Numeric Atom-Centered Orbitals',
            Computer Physics Communications 180, 2175-2196 (2009)

          In addition, many other developments in FHI-aims are likely important for
          your particular application. A partial list of references is given at the end of
          this file. Thank you for giving credit to the authors of these developments.

          For any questions about FHI-aims, please visit our slack channel at

            https://fhi-aims.slack.com

          and our main development and support site at

            https://aims-git.rz-berlin.mpg.de .

          The latter site, in particular, has a wiki to collect information, as well
          as an issue tracker to log discussions, suggest improvements, and report issues
          or bugs. https://aims-git.rz-berlin.mpg.de is also the main development site
          of the project and all new and updated code versions can be obtained there.
          Please send an email to aims-coordinators@fhi-berlin.mpg.de and we will add
          you to these sites. They are for you and everyone is welcome there.

------------------------------------------------------------



  Date     :  20201005, Time     :  084901.241
  Time zero on CPU 1             :   0.389930000000000E-01  s.
  Internal wall clock time zero  :           371119741.241  s.

  FHI-aims created a unique identifier for this run for later identification
  aims_uuid : 28ADDE95-3837-485B-A21C-B89A4C7568D3

  Build configuration of the current instance of FHI-aims
  -------------------------------------------------------
  FHI-aims version      : 201002
  Commit number         : 0108b3927
  CMake host system     : Linux-2.6.32-431.3.1.el6.x86_64
  CMake version         : 3.18.2
  Fortran compiler      : /opt/intel/impi/2018.4.274/bin64/mpiifort (Intel) version 18.0.5.20180823
  Fortran compiler flags: -O3 -ip -fp-model precise
  C compiler            : /opt/intel/impi/2018.4.274/bin64/mpiicc (Intel) version 18.0.5.20180823
  C compiler flags      : -O3 -std=c99
  ELPA2 kernel          : AVX
  Using MPI
  Using ScaLAPACK
  Using LibXC
  Using RLSY
  Linking against: /opt/intel/mkl/lib/intel64/libmkl_scalapack_lp64.so
                   /opt/intel/mkl/lib/intel64/libmkl_blacs_intelmpi_lp64.so
                   /opt/intel/mkl/lib/intel64/libmkl_intel_lp64.so
                   /opt/intel/mkl/lib/intel64/libmkl_sequential.so
                   /opt/intel/mkl/lib/intel64/libmkl_core.so
                   /opt/intel/compilers_and_libraries/linux/lib/intel64/libifcore.so

  Using       28 parallel tasks.
  Task        0 on host node16.timewarp reporting.
  Task        1 on host node16.timewarp reporting.
  Task        2 on host node16.timewarp reporting.
  Task        3 on host node16.timewarp reporting.
  Task        4 on host node16.timewarp reporting.
  Task        5 on host node16.timewarp reporting.
  Task        6 on host node16.timewarp reporting.
  Task        7 on host node16.timewarp reporting.
  Task        8 on host node16.timewarp reporting.
  Task        9 on host node16.timewarp reporting.
  Task       10 on host node16.timewarp reporting.
  Task       11 on host node16.timewarp reporting.
  Task       12 on host node16.timewarp reporting.
  Task       13 on host node16.timewarp reporting.
  Task       14 on host node16.timewarp reporting.
  Task       15 on host node16.timewarp reporting.
  Task       16 on host node16.timewarp reporting.
  Task       17 on host node16.timewarp reporting.
  Task       18 on host node16.timewarp reporting.
  Task       19 on host node16.timewarp reporting.
  Task       20 on host node16.timewarp reporting.
  Task       21 on host node16.timewarp reporting.
  Task       22 on host node16.timewarp reporting.
  Task       23 on host node16.timewarp reporting.
  Task       24 on host node16.timewarp reporting.
  Task       25 on host node16.timewarp reporting.
  Task       26 on host node16.timewarp reporting.
  Task       27 on host node16.timewarp reporting.

  Performing system and environment tests:
  | Environment variable OMP_NUM_THREADS correctly set to 1.
  | Checking for ScaLAPACK...
  | Testing pdtran()...
  | All pdtran() tests passed.

  Obtaining array dimensions for all initial allocations:

  -----------------------------------------------------------------------
  Parsing control.in (first pass over file, find array dimensions only).
  The contents of control.in will be repeated verbatim below
  unless switched off by setting 'verbatim_writeout .false.' .
  in the first line of control.in .
  -----------------------------------------------------------------------

  #
   xc pbe
   relativistic atomic_zora scalar
   include_spin_orbit
   k_grid 3 3 3
  #
   compute_dielectric 8.0 1000
   output moment_mat_soc
   output mulliken
  #
  ################################################################################
  #
  #  FHI-aims code project
  #  VB, Fritz-Haber Institut, 2009
  #
  #  Suggested "light" defaults for S atom (to be pasted into control.in file)
  #  Be sure to double-check any results obtained with these settings for post-processing,
  #  e.g., with the "tight" defaults and larger basis sets.
  #
  ################################################################################
    species        S
  #     global species definitions
      nucleus             16
      mass                32.065
  #
      l_hartree           4
  #
      cut_pot             3.5          1.5  1.0
      basis_dep_cutoff    1e-4
  #
      radial_base         44 5.0
      radial_multiplier   1
      angular_grids       specified
        division   0.4665  110
        division   0.5810  194
        division   0.7139  302
  #      division   0.8274  434
  #      division   0.9105  590
  #      division   1.0975  770
  #      division   1.2028  974
  #      outer_grid  974
        outer_grid  302
  ################################################################################
  #
  #  Definition of "minimal" basis
  #
  ################################################################################
  #     valence basis states
      valence      3  s   2.
      valence      3  p   4.
  #     ion occupancy
      ion_occ      3  s   1.
      ion_occ      3  p   3.
  ################################################################################
  #
  #  Suggested additional basis functions. For production calculations,
  #  uncomment them one after another (the most important basis functions are
  #  listed first).
  #
  #  Constructed for dimers: 1.6 A, 1.9 A, 2.5 A, 3.25 A, 4.0 A
  #
  ################################################################################
  #  "First tier" - improvements: -652.81 meV to -45.53 meV
       ionic 3 d auto
       hydro 2 p 1.8
  #     hydro 4 f 7
       ionic 3 s auto
  #  "Second tier" - improvements: -30.20 meV to -1.74 meV
  #     hydro 4 d 6.2
  #     hydro 5 g 10.8
  #     hydro 4 p 4.9
  #     hydro 5 f 10
  #     hydro 1 s 0.8
  #  "Third tier" - improvements: -1.04 meV to -0.20 meV
  #     hydro 3 d 3.9
  #     hydro 3 d 2.7
  #     hydro 5 g 12
  #     hydro 4 p 10.4
  #     hydro 5 f 12.4
  #     hydro 2 s 1.9
  #  "Fourth tier" - improvements: -0.35 meV to -0.06 meV
  #     hydro 4 d 10.4
  #     hydro 4 p 7.2
  #     hydro 4 d 10
  #     hydro 5 g 19.2
  #     hydro 4 s 12

  ################################################################################
  #
  #  FHI-aims code project
  #  VB, Fritz-Haber Institut, 2009
  #
  #  Suggested "light" defaults for Pb atom (to be pasted into control.in file)
  #  Be sure to double-check any results obtained with these settings for post-processing,
  #  e.g., with the "tight" defaults and larger basis sets.
  #
  #
  ################################################################################
    species        Pb
  #     global species definitions
      nucleus             82
      mass                207.2
  #
      l_hartree           4
  #
      cut_pot             4.0  1.5  1.0
      basis_dep_cutoff    1e-4
  #
      radial_base         74 5.5
      radial_multiplier   1
      angular_grids specified
        division   0.1064  110
        division   0.1579  194
        division   0.2150  302
  #      division   1.0164  434
  #      division   1.1544  590
  #      division   1.1970  770
  #      division   7.7779  974
  #      outer_grid  974
        outer_grid 302
  ################################################################################
  #
  #  Definition of "minimal" basis
  #
  ################################################################################
  #     valence basis states
      valence      6  s   2.
      valence      6  p   2.
      valence      5  d  10.
      valence      4  f  14.
  #     ion occupancy
      ion_occ     6  s    1.
      ion_occ     6  p    1.
      ion_occ     5  d   10.
      ion_occ     4  f   14.
  ################################################################################
  #
  #  Suggested additional basis functions. For production calculations,
  #  uncomment them one after another (the most important basis functions are
  #  listed first).
  #
  #  Constructed for dimers: 2.225, 2.50, 2.88, 3.625, 4.50
  #
  ################################################################################
  #  "First tier" - max. impr. -156.54 meV, min. impr. -14.49 meV
       hydro 3 p 2.3
       hydro 4 f 7.6
       hydro 3 d 3.5
  #     hydro 5 g 9.8
       hydro 3 s 3.2
  #  "Second tier" - max. impr. -4.38  meV, min. impr. -0.30 meV
  #     hydro 6 h 12.8
  #     hydro 3 d 2.4
  #     hydro 5 f 7.2
  #     hydro 5 f 14.8
  #     hydro 4 p 5.4
  #     ionic 6 s auto
  #  "Third tier" - max. impr. -0.86 meV, min. impr. -0.16 meV
  #     hydro 5 p 14.4
  #     hydro 5 g 8.2
  #     hydro 4 d 4.6
  #     hydro 6 h 12.4
  #     hydro 6 d 12.4
  #     hydro 4 s 4
  #     hydro 5 g 32.8
  #     hydro 5 f 9.4
  #  Further functions: -0.10 meV and below
  #     hydro 5 f 17.6
  #     hydro 7 p 19.6

  -----------------------------------------------------------------------
  Completed first pass over input file control.in .
  -----------------------------------------------------------------------


  -----------------------------------------------------------------------
  Parsing geometry.in (first pass over file, find array dimensions only).
  The contents of geometry.in will be repeated verbatim below
  unless switched off by setting 'verbatim_writeout .false.' .
  in the first line of geometry.in .
  -----------------------------------------------------------------------

  lattice_vector 6.000000000000000 0.000000000000000 0.000000000000000
  lattice_vector 0.000000000000000 6.000000000000000 0.000000000000000
  lattice_vector 3.000000000000000 3.000000000000000 3.750000000000000
  atom_frac 0.750000000000000 0.750000000000000 0.500000000000000 Pb
  atom_frac 0.250000000000000 0.250000000000000 0.500000000000000 Pb
  atom_frac 0.122000000000000 0.622000000000000 0.000000000000000 S
  atom_frac 0.878000000000000 0.378000000000000 0.000000000000000 S
  atom_frac 0.622000000000000 0.878000000000000 0.000000000000000 S
  atom_frac 0.378000000000000 0.122000000000000 0.000000000000000 S

  -----------------------------------------------------------------------
  Completed first pass over input file geometry.in .
  -----------------------------------------------------------------------


  Basic array size parameters:
  | Number of species                 :        2
  | Number of atoms                   :        6
  | Number of lattice vectors         :        3
  | Max. basis fn. angular momentum   :        3
  | Max. atomic/ionic basis occupied n:        6
  | Max. number of basis fn. types    :        3
  | Max. radial fns per species/type  :       15
  | Max. logarithmic grid size        :     1491
  | Max. radial integration grid size :       74
  | Max. angular integration grid size:      302
  | Max. angular grid division number :        8
  | Radial grid for Hartree potential :     1491
  | Number of spin channels           :        1

------------------------------------------------------------
          Reading file control.in.
------------------------------------------------------------
  XC: Using PBE gradient-corrected functionals.
  Scalar relativistic treatment of kinetic energy: on-site free-atom approximation to ZORA.
  Calculating non-self-consistent second-variational spin-orbit coupling after scf-cycle
  Found k-point grid:         3         3         3
  Compute Momentum Matrix.
  The SOC momentum matrix will be written out in the ELSI format.
  Full Mulliken charge analysis will be written to file 'Mulliken.out'.

  Reading configuration options for species S                   .
  | Found nuclear charge :  16.0000
  | Found atomic mass :    32.0650000000000      amu
  | Found l_max for Hartree potential  :   4
  | Found cutoff potl. onset [A], width [A], scale factor :    3.50000    1.50000    1.00000
  | Threshold for basis-dependent cutoff potential is   0.100000E-03
  | Found data for basic radial integration grid :    44 points, outermost radius =    5.000 A
  | Found multiplier for basic radial grid :   1
  | Found angular grid specification: user-specified.
  | Specified grid contains     4 separate shells.
  | Check grid settings after all constraints further below.
  | Found free-atom valence shell :  3 s   2.000
  | Found free-atom valence shell :  3 p   4.000
  | Found free-ion valence shell :  3 s   1.000
  | Found free-ion valence shell :  3 p   3.000
  | Found ionic basis function :  3 d , default cutoff radius.
  | Found hydrogenic basis function :  2 p   1.800
  | Found ionic basis function :  3 s , default cutoff radius.
  Species S                   : Missing cutoff potential type.
  Defaulting to exp(1/x)/(1-x)^2 type cutoff potential.
  Species S : No 'logarithmic' tag. Using default grid for free atom:
  | Default logarithmic grid data [bohr] : 0.1000E-03 0.1000E+03 0.1012E+01
  | Will include ionic basis functions of  2.0-fold positive S                    ion.
  Species S : On-site basis accuracy parameter (for Gram-Schmidt orthonormalisation) not specified.
  Using default value basis_acc =  0.1000000E-03.
  Species S                   : Using default innermost maximum threshold i_radial=  2 for radial functions.
  Species S                   : Default cutoff onset for free atom density etc. : 0.35000000E+01 AA.
  Species S                   : Basic radial grid will be enhanced according to radial_multiplier =   1, to contain    44 grid points.

  Reading configuration options for species Pb                  .
  | Found nuclear charge :  82.0000
  | Found atomic mass :    207.200000000000      amu
  | Found l_max for Hartree potential  :   4
  | Found cutoff potl. onset [A], width [A], scale factor :    4.00000    1.50000    1.00000
  | Threshold for basis-dependent cutoff potential is   0.100000E-03
  | Found data for basic radial integration grid :    74 points, outermost radius =    5.500 A
  | Found multiplier for basic radial grid :   1
  | Found angular grid specification: user-specified.
  | Specified grid contains     4 separate shells.
  | Check grid settings after all constraints further below.
  | Found free-atom valence shell :  6 s   2.000
  | Found free-atom valence shell :  6 p   2.000
  | Found free-atom valence shell :  5 d  10.000
  | Found free-atom valence shell :  4 f  14.000
  | Found free-ion valence shell :  6 s   1.000
  | Found free-ion valence shell :  6 p   1.000
  | Found free-ion valence shell :  5 d  10.000
  | Found free-ion valence shell :  4 f  14.000
  | Found hydrogenic basis function :  3 p   2.300
  | Found hydrogenic basis function :  4 f   7.600
  | Found hydrogenic basis function :  3 d   3.500
  | Found hydrogenic basis function :  3 s   3.200
  Species Pb                  : Missing cutoff potential type.
  Defaulting to exp(1/x)/(1-x)^2 type cutoff potential.
  Species Pb: No 'logarithmic' tag. Using default grid for free atom:
  | Default logarithmic grid data [bohr] : 0.1000E-03 0.1000E+03 0.1012E+01
  Species Pb: On-site basis accuracy parameter (for Gram-Schmidt orthonormalisation) not specified.
  Using default value basis_acc =  0.1000000E-03.
  Species Pb                  : Using default innermost maximum threshold i_radial=  2 for radial functions.
  Species Pb                  : Default cutoff onset for free atom density etc. : 0.40000000E+01 AA.
  Species Pb                  : Basic radial grid will be enhanced according to radial_multiplier =   1, to contain    74 grid points.

  Finished reading input file 'control.in'.

------------------------------------------------------------


------------------------------------------------------------
          Reading geometry description geometry.in.
------------------------------------------------------------
  | The smallest distance between any two atoms is         2.07040866 AA.
  | The first atom of this pair is atom number                      3 .
  | The second atom of this pair is atom number                     4 .
  | Wigner-Seitz cell of the first atom image           0     1     0 .
  | (The Wigner-Seitz cell of the second atom is 0 0 0  by definition.)

  Symmetry information by spglib:
  | Precision set to  0.1E-04
  | Number of Operations  : 16
  | Space group           : 140
  | International         : I4/mcm    X
  | Schoenflies           : D4h^18
  Input structure read successfully.
  The structure contains        6 atoms,  and a total of        228.000 electrons.

  Input geometry:
  | Unit cell:
  |        6.00000000        0.00000000        0.00000000
  |        0.00000000        6.00000000        0.00000000
  |        3.00000000        3.00000000        3.75000000
  | Atomic structure:
  |       Atom                x [A]            y [A]            z [A]
  |    1: Species Pb            6.00000000        6.00000000        1.87500000
  |    2: Species Pb            3.00000000        3.00000000        1.87500000
  |    3: Species S             0.73200000        3.73200000        0.00000000
  |    4: Species S             5.26800000        2.26800000        0.00000000
  |    5: Species S             3.73200000        5.26800000        0.00000000
  |    6: Species S             2.26800000        0.73200000        0.00000000

  Lattice parameters for 3D lattice (in Angstroms) :     6.000000    6.000000    5.662376
  Angle(s) between unit vectors (in degrees)       :    58.007183   58.007183   90.000000


  Quantities derived from the lattice vectors:
  | Reciprocal lattice vector 1:  1.047198 -0.000000 -0.837758
  | Reciprocal lattice vector 2:  0.000000  1.047198 -0.837758
  | Reciprocal lattice vector 3:  0.000000 -0.000000  1.675516
  | Unit cell volume                               :   0.135000E+03  A^3

  Fractional coordinates:
                         L1                L2                L3
       atom_frac         0.75000000        0.75000000        0.50000000  Pb
       atom_frac         0.25000000        0.25000000        0.50000000  Pb
       atom_frac         0.12200000        0.62200000       -0.00000000  S
       atom_frac         0.87800000        0.37800000       -0.00000000  S
       atom_frac         0.62200000        0.87800000       -0.00000000  S
       atom_frac         0.37800000        0.12200000       -0.00000000  S


  Finished reading input file 'control.in'.


------------------------------------------------------------
          Reading geometry description geometry.in.
------------------------------------------------------------

  Consistency checks for stacksize environment parameter are next.

  | Maximum stacksize for task 0: unlimited
  | Maximum stacksize for task 1: unlimited
  | Maximum stacksize for task 2: unlimited
  | Maximum stacksize for task 3: unlimited
  | Maximum stacksize for task 4: unlimited
  | Maximum stacksize for task 5: unlimited
  | Maximum stacksize for task 6: unlimited
  | Maximum stacksize for task 7: unlimited
  | Maximum stacksize for task 8: unlimited
  | Maximum stacksize for task 9: unlimited
  | Maximum stacksize for task 10: unlimited
  | Maximum stacksize for task 11: unlimited
  | Maximum stacksize for task 12: unlimited
  | Maximum stacksize for task 13: unlimited
  | Maximum stacksize for task 14: unlimited
  | Maximum stacksize for task 15: unlimited
  | Maximum stacksize for task 16: unlimited
  | Maximum stacksize for task 17: unlimited
  | Maximum stacksize for task 18: unlimited
  | Maximum stacksize for task 19: unlimited
  | Maximum stacksize for task 20: unlimited
  | Maximum stacksize for task 21: unlimited
  | Maximum stacksize for task 22: unlimited
  | Maximum stacksize for task 23: unlimited
  | Maximum stacksize for task 24: unlimited
  | Maximum stacksize for task 25: unlimited
  | Maximum stacksize for task 26: unlimited
  | Maximum stacksize for task 27: unlimited
  | Current stacksize for task 0: unlimited
  | Current stacksize for task 1: unlimited
  | Current stacksize for task 2: unlimited
  | Current stacksize for task 3: unlimited
  | Current stacksize for task 4: unlimited
  | Current stacksize for task 5: unlimited
  | Current stacksize for task 6: unlimited
  | Current stacksize for task 7: unlimited
  | Current stacksize for task 8: unlimited
  | Current stacksize for task 9: unlimited
  | Current stacksize for task 10: unlimited
  | Current stacksize for task 11: unlimited
  | Current stacksize for task 12: unlimited
  | Current stacksize for task 13: unlimited
  | Current stacksize for task 14: unlimited
  | Current stacksize for task 15: unlimited
  | Current stacksize for task 16: unlimited
  | Current stacksize for task 17: unlimited
  | Current stacksize for task 18: unlimited
  | Current stacksize for task 19: unlimited
  | Current stacksize for task 20: unlimited
  | Current stacksize for task 21: unlimited
  | Current stacksize for task 22: unlimited
  | Current stacksize for task 23: unlimited
  | Current stacksize for task 24: unlimited
  | Current stacksize for task 25: unlimited
  | Current stacksize for task 26: unlimited
  | Current stacksize for task 27: unlimited

  Consistency checks for the contents of control.in are next.

  MPI_IN_PLACE appears to work with this MPI implementation.
  | Keeping use_mpi_in_place .true. (see manual).
  Target number of points in a grid batch is not set. Defaulting to  100
  Method for grid partitioning is not set. Defaulting to parallel hash+maxmin partitioning.
  Batch size limit is not set. Defaulting to    200
  By default, will store active basis functions for each batch.
  If in need of memory, prune_basis_once .false. can be used to disable this option.
  communication_type for Hartree potential was not specified.
  Defaulting to calc_hartree .
  Defaulting to Pulay charge density mixer.
  Pulay mixer: Number of relevant iterations not set.
  Defaulting to    8 iterations.
  Pulay mixer: Number of initial linear mixing iterations not set.
  Defaulting to    0 iterations.
  Work space size for distributed Hartree potential not set.
  Defaulting to   0.200000E+03 MB.
  Mixing parameter for charge density mixing has not been set.
  Using default: charge_mix_param =     0.0500.
  The mixing parameter will be adjusted in iteration number     2 of the first full s.c.f. cycle only.
  Algorithm-dependent basis array size parameters:
  | n_max_pulay                         :        8
  Maximum number of self-consistency iterations not provided.
  Presetting  1000 iterations.
  Presetting      1001 iterations before the initial mixing cycle
  is restarted anyway using the sc_init_iter criterion / keyword.
  Presetting a factor      1.000 between actual scf density residual
  and density convergence criterion sc_accuracy_rho below which sc_init_iter
  takes no effect.
 * No s.c.f. convergence criteria (sc_accuracy_*) were provided in control.in.
 * The run will proceed with a reasonable default guess, but please check whether.
 * the s.c.f. cycles seem to take too much or too little time.
  Calculation of forces was not defined in control.in. No forces will be calculated.
  Geometry relaxation not requested: no relaxation will be performed.
 * Notice: The s.c.f. convergence criterion sc_accuracy_rho was not provided.
 * We used to stop in this case, and ask the user to provide reasonable
 * scf convergence criteria. However, this led some users to employ criteria
 * that led to extremely long run times, e.g., for simple relaxation.
 * We now preset a default value for sc_accuracy_rho if it is not set.
 * You may still wish to check if this setting is too tight or too loose for your needs.
 * Based on n_atoms, FHI-aims chose sc_accuracy_rho =  0.100000E-05 .
  No accuracy limit for integral partition fn. given. Defaulting to  0.1000E-14.
  No threshold value for u(r) in integrations given. Defaulting to  0.1000E-05.
  No occupation type (smearing scheme) given. Defaulting to Gaussian broadening, width =  0.1000E-01 eV.
  The width will be adjusted in iteration number     2 of the first full s.c.f. cycle only.
  S.C.F. convergence parameters will be adjusted in iteration number     2 of the first full s.c.f. cycle only.
  No accuracy for occupation numbers given. Defaulting to  0.1000E-12.
  No threshold value for occupation numbers given. Defaulting to  0.0000E+00.
  No accuracy for fermi level given. Defaulting to  0.1000E-19.
  Maximum # of iterations to find E_F not set. Defaulting to  200.
  Preferred method for the eigenvalue solver ('KS_method') not specified in 'control.in'.
  Calling BLACS routine to test compilation state
  Since ScaLAPACK support is enabled, defaulting to ELPA (via ELSI).
  Will not use alltoall communication since running on < 1024 CPUs.
  Threshold for basis singularities not set.
  Default threshold for basis singularities:  0.1000E-04
  partition_type (choice of integration weights) for integrals was not specified.
  | Using a version of the partition function of Stratmann and coworkers ('stratmann_sparse').
  | At each grid point, the set of atoms used to build the partition table is smoothly restricted to
  | only those atoms whose free-atom density would be non-zero at that grid point.
  Partitioning for Hartree potential was not defined. Using partition_type for integrals.
  | Adjusted default value of keyword multip_moments_threshold to:       0.10000000E-11
  | This value may affect high angular momentum components of the Hartree potential in periodic systems.
  Spin handling was not defined in control.in. Defaulting to unpolarized case.
  Angular momentum expansion for Kerker preconditioner not set explicitly.
  | Using default value of   0
  No explicit requirement for turning off preconditioner.
  | By default, it will be turned off when the charge convergence reaches
  | sc_accuracy_rho  =   0.100000E-05
  No special mixing parameter while Kerker preconditioner is on.
  Using default: charge_mix_param =     0.0500.
  No q(lm)/r^(l+1) cutoff set for long-range Hartree potential.
  | Using default value of  0.100000E-09 .
  | Verify using the multipole_threshold keyword.
  Defaulting to new monopole extrapolation.
  Density update method: automatic selection selected.
  Using density matrix based charge density update.
  Using density matrix based charge density update.
  Using packed matrix style: index .
  Defaulting to use time-reversal symmetry for k-point grid.
  Charge integration errors on the 3D integration grid will be compensated
  by explicit normalization and distribution of residual charges.
  Use the "compensate_multipole_errors" flag to change this behaviour.

  Consistency checks for the contents of geometry.in are next.


  Range separation radius for Ewald summation (hartree_convergence_parameter):      4.05820552 bohr.
  Number of empty states per atom not set in control.in - providing a guess from actual geometry.
  | Total number of empty states used during s.c.f. cycle:       30
  If you use a very high smearing, use empty_states (per atom!) in control.in to increase this value.
  * Since a dielectric function calculation was requested, the number of empty states requested was INCREASED.

  Structure-dependent array size parameters:
  | Maximum number of distinct radial functions  :       27
  | Maximum number of basis functions            :      190
  | Number of Kohn-Sham states (occupied + empty):      294
------------------------------------------------------------

------------------------------------------------------------
          Preparing all fixed parts of the calculation.
------------------------------------------------------------
  Determining machine precision:
    2.225073858507201E-308
  Setting up grids for atomic and cluster calculations.

  Creating wave function, potential, and density for free atoms.

  Species: S

  List of occupied orbitals and eigenvalues:
    n    l              occ      energy [Ha]    energy [eV]
    1    0           2.0000       -88.678258     -2413.0582
    2    0           2.0000        -7.779365      -211.6873
    3    0           2.0000        -0.631865       -17.1939
    2    1           6.0000        -5.749610      -156.4549
    3    1           4.0000        -0.255301        -6.9471


  Species: Pb

  List of occupied orbitals and eigenvalues:
    n    l              occ      energy [Ha]    energy [eV]
    1    0           2.0000     -3583.275374    -97505.8840
    2    0           2.0000      -591.288386    -16089.7756
    3    0           2.0000      -139.815632     -3804.5769
    4    0           2.0000       -31.498090      -857.1066
    5    0           2.0000        -5.283870      -143.7814
    6    0           2.0000        -0.434182       -11.8147
    2    1           6.0000      -505.944692    -13767.4555
    3    1           6.0000      -115.938523     -3154.8477
    4    1           6.0000       -23.732126      -645.7840
    5    1           6.0000        -3.141456       -85.4834
    6    1           2.0000        -0.120461        -3.2779
    3    2          10.0000       -91.723313     -2495.9183
    4    2          10.0000       -14.773305      -402.0021
    5    2          10.0000        -0.769506       -20.9393
    4    3          14.0000        -4.885932      -132.9530


  Adding cutoff potential to free-atom effective potential.
  Creating fixed part of basis set: Ionic, confined, hydrogenic.

  S                    ion:

  List of free ionic orbitals and eigenvalues:
    n    l      energy [Ha]    energy [eV]
    1    0       -89.703778     -2440.9640
    2    0        -8.775428      -238.7916
    3    0        -1.470343       -40.0101
    2    1        -6.747660      -183.6132
    3    1        -1.048627       -28.5346


  List of ionic basis orbitals and eigenvalues:
    n    l      energy [Ha]    energy [eV]    outer radius [A]
    3    2        -0.495221       -13.4756       4.539062
    3    0        -1.470325       -40.0096       3.642502


  S                    hydrogenic:

  List of hydrogenic basis orbitals:
    n    l      effective z      eigenvalue [eV]  inner max. [A]     outer max. [A]     outer radius [A]
    2    1         1.800000       -10.9749           1.168531           1.168531           4.594893


  Pb                   hydrogenic:

  List of hydrogenic basis orbitals:
    n    l      effective z      eigenvalue [eV]  inner max. [A]     outer max. [A]     outer radius [A]
    3    1         2.300000        -7.3978           0.685138           2.597082           5.087378
    4    3         7.600000       -49.1160           1.117244           1.117244           4.447258
    3    2         3.500000       -18.5104           1.358613           1.358613           5.025564
    3    0         3.200000       -15.3818           0.122229           2.161957           5.087378

  Creating atomic-like basis functions for current effective potential.

  Species S                   :

  List of atomic basis orbitals and eigenvalues:
    n    l      energy [Ha]    energy [eV]    outer radius [A]
    1    0       -88.678258     -2413.0582       0.682391
    2    0        -7.779365      -211.6873       2.289014
    3    0        -0.631865       -17.1939       4.483910
    2    1        -5.749610      -156.4549       2.555240
    3    1        -0.255301        -6.9471       4.539062


  Species Pb                  :

  List of atomic basis orbitals and eigenvalues:
    n    l      energy [Ha]    energy [eV]    outer radius [A]
    1    0     -3583.275374    -97505.8840       0.114982
    2    0      -591.288386    -16089.7756       0.298366
    3    0      -139.815632     -3804.5769       0.621304
    4    0       -31.498090      -857.1066       1.278055
    5    0        -5.283870      -143.7814       2.934797
    6    0        -0.434182       -11.8147       5.025564
    2    1      -505.944692    -13767.4555       0.317173
    3    1      -115.938523     -3154.8477       0.668590
    4    1       -23.732126      -645.7840       1.426700
    5    1        -3.141456       -85.4834       3.657164
    6    1        -0.120461        -3.2779       5.087378
    3    2       -91.723313     -2495.9183       0.719474
    4    2       -14.773305      -402.0021       1.713844
    5    2        -0.769506       -20.9393       4.844590
    4    3        -4.885932      -132.9530       2.597082

  Assembling full basis from fixed parts.
  | Species S :   atomic orbital   1 s accepted.
  | Species S :   atomic orbital   2 s accepted.
  | Species S :    ionic orbital   3 s accepted.
  | Species S :   atomic orbital   3 s accepted.
  | Species S :   atomic orbital   2 p accepted.
  | Species S :   atomic orbital   3 p accepted.
  | Species S :    hydro orbital   2 p accepted.
  | Species S :    ionic orbital   3 d accepted.
  | Species Pb :   atomic orbital   1 s accepted.
  | Species Pb :   atomic orbital   2 s accepted.
  | Species Pb :   atomic orbital   3 s accepted.
  | Species Pb :   atomic orbital   4 s accepted.
  | Species Pb :   atomic orbital   5 s accepted.
  | Species Pb :   atomic orbital   6 s accepted.
  | Species Pb :    hydro orbital   3 s accepted.
  | Species Pb :   atomic orbital   2 p accepted.
  | Species Pb :   atomic orbital   3 p accepted.
  | Species Pb :   atomic orbital   4 p accepted.
  | Species Pb :   atomic orbital   5 p accepted.
  | Species Pb :   atomic orbital   6 p accepted.
  | Species Pb :    hydro orbital   3 p accepted.
  | Species Pb :   atomic orbital   3 d accepted.
  | Species Pb :   atomic orbital   4 d accepted.
  | Species Pb :   atomic orbital   5 d accepted.
  | Species Pb :    hydro orbital   3 d accepted.
  | Species Pb :   atomic orbital   4 f accepted.
  | Species Pb :    hydro orbital   4 f accepted.
  Reducing total number of  Kohn-Sham states to      190.

  Basis size parameters after reduction:
  | Total number of radial functions:       27
  | Total number of basis functions :      190

  Per-task memory consumption for arrays in subroutine allocate_ext:
  |          10.311912MB.
  Testing on-site integration grid accuracy.
  |  Species  Function  <phi|h_atom|phi> (log., in eV)  <phi|h_atom|phi> (rad., in eV)
           1        1              -2413.0581659109              -2413.0570554886
           1        2               -211.6872814127               -211.6872738937
           1        3                -16.9208611991                -16.9208255642
           1        4                  7.5845503345                  7.5614252779
           1        5               -156.4548540501               -156.4548540107
           1        6                 -6.9485729304                 -6.9508389945
           1        7                  7.5803076288                  7.5258504832 ***
           1        8                  6.1173006980                  6.1127563631
           2        9             -97505.8839916597             -97505.4610915722 ***
           2       10             -16089.7756224867             -16089.7673698558
           2       11              -3804.5769230375              -3804.5764843087
           2       12               -857.1066466665               -857.1066165521
           2       13               -143.7814146583               -143.7814107259
           2       14                -11.8148645926                -11.8150585698
           2       15                  3.1384536114                  3.1074738951 ***
           2       16             -13767.4555482042             -13767.4555179163
           2       17              -3154.8477157471              -3154.8477089453
           2       18               -645.7840140064               -645.7840104767
           2       19                -85.4833700251                -85.4833680553
           2       20                 -3.2863583968                 -3.2978599646
           2       21                  5.7851278719                  5.6622419767 ***
           2       22              -2495.9183401346              -2495.9183384015
           2       23               -402.0020691689               -402.0020673701
           2       24                -20.9393228216                -20.9393223968
           2       25                  7.1026569115                  7.0986049218
           2       26               -132.9529645464               -132.9529639915
           2       27                 17.8899917474                 17.8898480698
 * Note: Onsite integrals marked "***" above are less accurate than
 * onsite_accuracy_threshold =    0.03000 eV. Usually, this is harmless.
 * However, one integral did have a negative value. This integral could be important.
 * When in doubt, tighten the "radial" and/or "radial_multiplier" flags to check.

  Preparing densities etc. for the partition functions (integrals / Hartree potential).

  Preparations completed.
  max(cpu_time)          :      0.527 s.
  Wall clock time (cpu1) :      0.526 s.
------------------------------------------------------------

------------------------------------------------------------
          Begin self-consistency loop: Initialization.

          Date     :  20201005, Time     :  084901.859
------------------------------------------------------------

  Initializing index lists of integration centers etc. from given atomic structure:
  Mapping all atomic coordinates to central unit cell.

  Initializing the k-points
  Using symmetry for reducing the k-points
  | k-points reduced from:       27 to       14
  | Number of k-points                             :        14
  The eigenvectors in the calculations are COMPLEX.
  | Number of basis functions in the Hamiltonian integrals :      2830
  | Number of basis functions in a single unit cell        :       190
  | Number of centers in hartree potential         :       958
  | Number of centers in hartree multipole         :       429
  | Number of centers in electron density summation:       332
  | Number of centers in basis integrals           :       345
  | Number of centers in integrals                 :       130
  | Number of centers in hamiltonian               :       374
  | Consuming         21 KiB for k_phase.
  | Number of super-cells (origin) [n_cells]                     :         891
  | Number of super-cells (after PM_index) [n_cells]             :          96
  | Number of super-cells in hamiltonian [n_cells_in_hamiltonian]:          96
  | Size of matrix packed + index [n_hamiltonian_matrix_size] :      252287
  | Estimated reciprocal-space cutoff momentum G_max:         2.29562005 bohr^-1 .
  | Reciprocal lattice points for long-range Hartree potential:     172
  Using simple linear distribution as default method for k-point parallelism.
  * Using 28 tasks for Scalapack Eigenvalue solver.
  Detailed listing of tasks and assigned k-points:
   Task     0 k-point     1 on node16.timewarp
   Task     1 k-point     1 on node16.timewarp
   Task     2 k-point     2 on node16.timewarp
   Task     3 k-point     2 on node16.timewarp
   Task     4 k-point     3 on node16.timewarp
   Task     5 k-point     3 on node16.timewarp
   Task     6 k-point     4 on node16.timewarp
   Task     7 k-point     4 on node16.timewarp
   Task     8 k-point     5 on node16.timewarp
   Task     9 k-point     5 on node16.timewarp
   Task    10 k-point     6 on node16.timewarp
   Task    11 k-point     6 on node16.timewarp
   Task    12 k-point     7 on node16.timewarp
   Task    13 k-point     7 on node16.timewarp
   Task    14 k-point     8 on node16.timewarp
   Task    15 k-point     8 on node16.timewarp
   Task    16 k-point     9 on node16.timewarp
   Task    17 k-point     9 on node16.timewarp
   Task    18 k-point    10 on node16.timewarp
   Task    19 k-point    10 on node16.timewarp
   Task    20 k-point    11 on node16.timewarp
   Task    21 k-point    11 on node16.timewarp
   Task    22 k-point    12 on node16.timewarp
   Task    23 k-point    12 on node16.timewarp
   Task    24 k-point    13 on node16.timewarp
   Task    25 k-point    13 on node16.timewarp
   Task    26 k-point    14 on node16.timewarp
   Task    27 k-point    14 on node16.timewarp
  K-point:     1 Tasks:     2 split into      2 X      1 BLACS grid
  Calculating block size based on n_basis =          190  max_nprow =            2  max_npcol =            1
  ScaLAPACK block size set to:           16
  Allocating        0.278 MB for ovlp_complex
  Allocating        0.278 MB for ham_complex
  Allocating        0.278 MB for eigenvec_complex
  Required Scalapack workspace - INTEGER:            1  REAL:             1  COMPLEX:            1
  Partitioning the integration grid into batches with parallel hashing+maxmin method.
  | Number of batches:      899
  | Maximal batch size:     118
  | Minimal batch size:       7
  | Average batch size:      80.009
  | Standard deviation of batch sizes:      16.314

  Integration load balanced across    28 MPI tasks.
  Work distribution over tasks is as follows:
  Task     0 has       2544 integration points.
  Task     1 has       2611 integration points.
  Task     2 has       2520 integration points.
  Task     3 has       2539 integration points.
  Task     4 has       2566 integration points.
  Task     5 has       2604 integration points.
  Task     6 has       2521 integration points.
  Task     7 has       2600 integration points.
  Task     8 has       2546 integration points.
  Task     9 has       2604 integration points.
  Task    10 has       2595 integration points.
  Task    11 has       2554 integration points.
  Task    12 has       2549 integration points.
  Task    13 has       2566 integration points.
  Task    14 has       2594 integration points.
  Task    15 has       2607 integration points.
  Task    16 has       2520 integration points.
  Task    17 has       2559 integration points.
  Task    18 has       2593 integration points.
  Task    19 has       2598 integration points.
  Task    20 has       2599 integration points.
  Task    21 has       2584 integration points.
  Task    22 has       2543 integration points.
  Task    23 has       2606 integration points.
  Task    24 has       2534 integration points.
  Task    25 has       2550 integration points.
  Task    26 has       2547 integration points.
  Task    27 has       2575 integration points.
  Initializing partition tables, free-atom densities, potentials, etc. across the integration grid (initialize_grid_storage).
  | initialize_grid_storage: Actual outermost partition radius vs. multipole_radius_free
  | (-- VB: in principle, multipole_radius_free should be larger, hence this output)
  | Species        1: Confinement radius =              4.999999999999999 AA, multipole_radius_free =              5.005414751018925 AA.
  | Species        1: outer_partition_radius set to              5.005414751018925 AA .
  | Species        2: Confinement radius =              5.500000000000000 AA, multipole_radius_free =              5.541900383498898 AA.
  | Species        2: outer_partition_radius set to              5.541900383498898 AA .
  | The sparse table of interatomic distances needs        521.80 kbyte instead of       952.20 kbyte of memory.
  | Net number of integration points:    71928
  | of which are non-zero points    :    66804
  | Numerical average free-atom electrostatic potential    :    -16.34901664 eV
  Renormalizing the initial density to the exact electron count on the 3D integration grid.
  | Initial density: Formal number of electrons (from input files) :     228.0000000000
  | Integrated number of electrons on 3D grid     :     228.0000113908
  | Charge integration error                      :       0.0000113908
  | Normalization factor for density and gradient :       0.9999999500
  Renormalizing the free-atom superposition density to the exact electron count on the 3D integration grid.
  | Formal number of electrons (from input files) :     228.0000000000
  | Integrated number of electrons on 3D grid     :     228.0000113908
  | Charge integration error                      :       0.0000113908
  | Normalization factor for density and gradient :       0.9999999500
  Obtaining max. number of non-zero basis functions in each batch (get_n_compute_maxes).
  | Maximal number of non-zero basis functions:      610 in task     0
  | Maximal number of non-zero basis functions:      583 in task     1
  | Maximal number of non-zero basis functions:      564 in task     2
  | Maximal number of non-zero basis functions:      562 in task     3
  | Maximal number of non-zero basis functions:      558 in task     4
  | Maximal number of non-zero basis functions:      563 in task     5
  | Maximal number of non-zero basis functions:      558 in task     6
  | Maximal number of non-zero basis functions:      592 in task     7
  | Maximal number of non-zero basis functions:      579 in task     8
  | Maximal number of non-zero basis functions:      561 in task     9
  | Maximal number of non-zero basis functions:      571 in task    10
  | Maximal number of non-zero basis functions:      570 in task    11
  | Maximal number of non-zero basis functions:      564 in task    12
  | Maximal number of non-zero basis functions:      611 in task    13
  | Maximal number of non-zero basis functions:      561 in task    14
  | Maximal number of non-zero basis functions:      590 in task    15
  | Maximal number of non-zero basis functions:      583 in task    16
  | Maximal number of non-zero basis functions:      581 in task    17
  | Maximal number of non-zero basis functions:      570 in task    18
  | Maximal number of non-zero basis functions:      598 in task    19
  | Maximal number of non-zero basis functions:      594 in task    20
  | Maximal number of non-zero basis functions:      579 in task    21
  | Maximal number of non-zero basis functions:      573 in task    22
  | Maximal number of non-zero basis functions:      572 in task    23
  | Maximal number of non-zero basis functions:      579 in task    24
  | Maximal number of non-zero basis functions:      602 in task    25
  | Maximal number of non-zero basis functions:      569 in task    26
  | Maximal number of non-zero basis functions:      600 in task    27
  Allocating        0.551 MB for KS_eigenvector_complex
  Integrating Hamiltonian matrix: batch-based integration.
  Time summed over all CPUs for integration: real work        7.965 s, elapsed        9.913 s
  Integrating overlap matrix.
  Time summed over all CPUs for integration: real work        5.601 s, elapsed        6.802 s
  Decreasing sparse matrix size:
  | Tolerance:  0.1000E-12
  Hamiltonian matrix
  | Array has   197774 nonzero elements out of   252287 elements
  | Sparsity factor is 0.216
  Overlap matrix
  | Array has   182724 nonzero elements out of   252287 elements
  | Sparsity factor is 0.276
  New size of hamiltonian matrix:      200629
  Not deallocating overlap matrix.

  Updating Kohn-Sham eigenvalues and eigenvectors using ELSI and the ELPA eigensolver.
  Singularity check in k-point 1 (analysis for other k-points may follow below):
  Overlap matrix is not singular
  | Lowest and highest eigenvalues :  0.3132E-02,  0.5574E+01
  Finished singularity check of overlap matrix
  | Time :     0.017 s
  Starting ELPA eigensolver
  Finished Cholesky decomposition
  | Time :     0.004 s
  Finished transformation to standard eigenproblem
  | Time :     0.005 s
  Finished solving standard eigenproblem
  | Time :     0.033 s
  Finished back-transformation of eigenvectors
  | Time :     0.004 s

  Obtaining occupation numbers and chemical potential using ELSI.
  | Chemical potential (Fermi level):    -5.58222784 eV
  Writing Kohn-Sham eigenvalues.
  K-point:       1 at    0.000000    0.000000    0.000000 (in units of recip. lattice)

  State    Occupation    Eigenvalue [Ha]    Eigenvalue [eV]
      1       2.00000       -3583.248032       -97505.13997
      2       2.00000       -3583.248032       -97505.13997
      3       2.00000        -591.286421       -16089.72214
      4       2.00000        -591.286421       -16089.72214
      5       2.00000        -505.946079       -13767.49328
      6       2.00000        -505.946079       -13767.49328
      7       2.00000        -505.946077       -13767.49325
      8       2.00000        -505.946077       -13767.49325
      9       2.00000        -505.946077       -13767.49325
     10       2.00000        -505.946077       -13767.49325
     11       2.00000        -139.816110        -3804.58992
     12       2.00000        -139.816110        -3804.58992
     13       2.00000        -115.939726        -3154.88046
     14       2.00000        -115.939726        -3154.88046
     15       2.00000        -115.939716        -3154.88018
     16       2.00000        -115.939716        -3154.88018
     17       2.00000        -115.939716        -3154.88018
     18       2.00000        -115.939716        -3154.88018
     19       2.00000         -91.724438        -2495.94895
     20       2.00000         -91.724438        -2495.94895
     21       2.00000         -91.724436        -2495.94890
     22       2.00000         -91.724436        -2495.94890
     23       2.00000         -91.724436        -2495.94890
     24       2.00000         -91.724436        -2495.94890
     25       2.00000         -91.724430        -2495.94873
     26       2.00000         -91.724430        -2495.94873
     27       2.00000         -91.724430        -2495.94873
     28       2.00000         -91.724430        -2495.94873
     29       2.00000         -88.690492        -2413.39108
     30       2.00000         -88.690492        -2413.39108
     31       2.00000         -88.690492        -2413.39108
     32       2.00000         -88.690492        -2413.39108
     33       2.00000         -31.499194         -857.13669
     34       2.00000         -31.499194         -857.13669
     35       2.00000         -23.733475         -645.82070
     36       2.00000         -23.733475         -645.82070
     37       2.00000         -23.733419         -645.81919
     38       2.00000         -23.733419         -645.81919
     39       2.00000         -23.733419         -645.81919
     40       2.00000         -23.733419         -645.81919
     41       2.00000         -14.774656         -402.03883
     42       2.00000         -14.774656         -402.03883
     43       2.00000         -14.774644         -402.03851
     44       2.00000         -14.774644         -402.03851
     45       2.00000         -14.774644         -402.03851
     46       2.00000         -14.774644         -402.03851
     47       2.00000         -14.774597         -402.03725
     48       2.00000         -14.774597         -402.03725
     49       2.00000         -14.774597         -402.03724
     50       2.00000         -14.774597         -402.03724
     51       2.00000          -7.793496         -212.07181
     52       2.00000          -7.793496         -212.07181
     53       2.00000          -7.793458         -212.07077
     54       2.00000          -7.793458         -212.07077
     55       2.00000          -5.764464         -156.85903
     56       2.00000          -5.764463         -156.85903
     57       2.00000          -5.764220         -156.85242
     58       2.00000          -5.764220         -156.85242
     59       2.00000          -5.763201         -156.82467
     60       2.00000          -5.763201         -156.82467
     61       2.00000          -5.763183         -156.82419
     62       2.00000          -5.763183         -156.82419
     63       2.00000          -5.763069         -156.82108
     64       2.00000          -5.763069         -156.82108
     65       2.00000          -5.763051         -156.82060
     66       2.00000          -5.763051         -156.82060
     67       2.00000          -5.285966         -143.83845
     68       2.00000          -5.285966         -143.83844
     69       2.00000          -4.887331         -132.99104
     70       2.00000          -4.887331         -132.99104
     71       2.00000          -4.887324         -132.99086
     72       2.00000          -4.887324         -132.99086
     73       2.00000          -4.887324         -132.99086
     74       2.00000          -4.887324         -132.99086
     75       2.00000          -4.887303         -132.99028
     76       2.00000          -4.887303         -132.99028
     77       2.00000          -4.887302         -132.99025
     78       2.00000          -4.887302         -132.99025
     79       2.00000          -4.887257         -132.98904
     80       2.00000          -4.887257         -132.98904
     81       2.00000          -4.887257         -132.98904
     82       2.00000          -4.887257         -132.98904
     83       2.00000          -3.144321          -85.56132
     84       2.00000          -3.144302          -85.56081
     85       2.00000          -3.143910          -85.55015
     86       2.00000          -3.143910          -85.55015
     87       2.00000          -3.143910          -85.55014
     88       2.00000          -3.143910          -85.55014
     89       2.00000          -0.783453          -21.31884
     90       2.00000          -0.780491          -21.23824
     91       2.00000          -0.780491          -21.23824
     92       2.00000          -0.777925          -21.16842
     93       2.00000          -0.777120          -21.14650
     94       2.00000          -0.775552          -21.10386
     95       2.00000          -0.774817          -21.08384
     96       2.00000          -0.774817          -21.08384
     97       2.00000          -0.774464          -21.07425
     98       2.00000          -0.772963          -21.03339
     99       2.00000          -0.771833          -21.00264
    100       2.00000          -0.741100          -20.16636
    101       2.00000          -0.607903          -16.54187
    102       2.00000          -0.607903          -16.54187
    103       2.00000          -0.497067          -13.52587
    104       2.00000          -0.429692          -11.69252
    105       2.00000          -0.392498          -10.68041
    106       2.00000          -0.368016          -10.01423
    107       2.00000          -0.368016          -10.01423
    108       2.00000          -0.364050           -9.90631
    109       2.00000          -0.352866           -9.60198
    110       2.00000          -0.338603           -9.21387
    111       2.00000          -0.314423           -8.55588
    112       2.00000          -0.314423           -8.55588
    113       2.00000          -0.304517           -8.28632
    114       2.00000          -0.207896           -5.65714
    115       0.00000          -0.086145           -2.34414
    116       0.00000          -0.086145           -2.34414
    117       0.00000          -0.043000           -1.17010
    118       0.00000          -0.043000           -1.17010
    119       0.00000          -0.037118           -1.01004
    120       0.00000          -0.037118           -1.01004
    121       0.00000          -0.018731           -0.50970
    122       0.00000           0.005542            0.15081
    123       0.00000           0.009300            0.25307
    124       0.00000           0.040068            1.09031
    125       0.00000           0.091559            2.49145
    126       0.00000           0.150549            4.09666
    127       0.00000           0.150549            4.09666
    128       0.00000           0.222256            6.04790
    129       0.00000           0.229204            6.23696
    130       0.00000           0.237503            6.46279
    131       0.00000           0.237503            6.46279
    132       0.00000           0.255207            6.94454
    133       0.00000           0.291409            7.92963
    134       0.00000           0.293096            7.97554
    135       0.00000           0.293096            7.97554
    136       0.00000           0.312117            8.49314
    137       0.00000           0.313081            8.51936
    138       0.00000           0.332554            9.04924
    139       0.00000           0.342642            9.32376
    140       0.00000           0.382613           10.41142
    141       0.00000           0.382613           10.41142
    142       0.00000           0.412695           11.22999
    143       0.00000           0.420556           11.44390
    144       0.00000           0.420556           11.44390
    145       0.00000           0.463817           12.62111
    146       0.00000           0.467257           12.71470
    147       0.00000           0.467257           12.71470
    148       0.00000           0.507103           13.79898
    149       0.00000           0.538134           14.64338
    150       0.00000           0.538134           14.64338
    151       0.00000           0.543064           14.77752
    152       0.00000           0.579127           15.75885
    153       0.00000           0.605350           16.47240
    154       0.00000           0.649149           17.66423
    155       0.00000           0.649149           17.66423
    156       0.00000           0.654078           17.79836
    157       0.00000           0.682580           18.57395
    158       0.00000           0.684433           18.62438
    159       0.00000           0.691009           18.80331
    160       0.00000           0.732956           19.94475
    161       0.00000           0.732956           19.94475
    162       0.00000           0.763687           20.78098
    163       0.00000           0.763687           20.78098
    164       0.00000           0.786634           21.40540
    165       0.00000           0.791039           21.52525
    166       0.00000           0.791039           21.52525
    167       0.00000           0.821684           22.35917
    168       0.00000           0.857312           23.32864
    169       0.00000           0.885168           24.08665
    170       0.00000           0.896530           24.39583
    171       0.00000           0.915183           24.90339
    172       0.00000           0.915183           24.90339
    173       0.00000           0.945826           25.73723
    174       0.00000           0.965083           26.26124
    175       0.00000           0.965083           26.26124
    176       0.00000           1.007783           27.42318
    177       0.00000           1.116654           30.38571
    178       0.00000           1.146425           31.19582
    179       0.00000           1.146425           31.19582
    180       0.00000           1.180941           32.13505
    181       0.00000           1.201090           32.68331
    182       0.00000           1.330474           36.20405
    183       0.00000           1.413218           38.45563
    184       0.00000           1.413218           38.45563
    185       0.00000           1.446893           39.37196
    186       0.00000           1.446893           39.37196
    187       0.00000           1.611771           43.85853
    188       0.00000           1.764230           48.00714
    189       0.00000           1.764230           48.00714
    190       0.00000           1.767804           48.10440

  What follows are estimated values for band gap, HOMO, LUMO, etc.
  | They are estimated on a discrete k-point grid and not necessarily exact.
  | For converged numbers, create a DOS and/or band structure plot on a denser k-grid.

  Highest occupied state (VBM) at     -5.62857706 eV (relative to internal zero)
  | Occupation number:      2.00000000
  | K-point:       2 at    0.000000    0.000000    0.333333 (in units of recip. lattice)

  Lowest unoccupied state (CBM) at    -4.19887820 eV (relative to internal zero)
  | Occupation number:      0.00000000
  | K-point:       4 at    0.000000    0.333333    0.666667 (in units of recip. lattice)

  ESTIMATED overall HOMO-LUMO gap:      1.42969886 eV between HOMO at k-point 2 and LUMO at k-point 4
  | This appears to be an indirect band gap.
  | Smallest direct gap :      1.73942453 eV for k_point 4 at    0.000000    0.333333    0.666667 (in units of recip. lattice)
  The gap value is above 0.2 eV. Unless you are using a very sparse k-point grid,
  this system is most likely an insulator or a semiconductor.
  Calculating total energy contributions from superposition of free atom densities.

  Total energy components:
  | Sum of eigenvalues            :      -28395.97737061 Ha     -772693.85848489 eV
  | XC energy correction          :        -888.61878796 Ha      -24180.54751309 eV
  | XC potential correction       :        1160.83816939 Ha       31588.01376963 eV
  | Free-atom electrostatic energy:      -16851.23767389 Ha     -458545.50764524 eV
  | Hartree energy correction     :           0.00000000 Ha           0.00000000 eV
  | Entropy correction            :          -0.00000000 Ha          -0.00000000 eV
  | ---------------------------
  | Total energy                  :      -44974.99566307 Ha    -1223831.89987360 eV
  | Total energy, T -> 0          :      -44974.99566307 Ha    -1223831.89987360 eV  <-- do not rely on this value for anything but (periodic) metals
  | Electronic free energy        :      -44974.99566307 Ha    -1223831.89987360 eV

  Derived energy quantities:
  | Kinetic energy                :       50808.56337492 Ha     1382571.35388768 eV
  | Electrostatic energy          :      -94894.94025003 Ha    -2582222.70624818 eV
  | Energy correction for multipole
  | error in Hartree potential    :           0.00000000 Ha           0.00000000 eV
  | Sum of eigenvalues per atom                           :     -128782.30974748 eV
  | Total energy (T->0) per atom                          :     -203971.98331227 eV  <-- do not rely on this value for anything but (periodic) metals
  | Electronic free energy per atom                       :     -203971.98331227 eV
  Initialize hartree_potential_storage
  Max. number of atoms included in rho_multipole:            6

  End scf initialization - timings             :  max(cpu_time)    wall_clock(cpu1)
  | Time for scf. initialization               :        1.094 s           1.094 s
  | Boundary condition initialization          :        0.105 s           0.106 s
  | Integration                                :        0.618 s           0.617 s
  | Solution of K.-S. eqns.                    :        0.074 s           0.071 s
  | Grid partitioning                          :        0.092 s           0.092 s
  | Preloading free-atom quantities on grid    :        0.151 s           0.152 s
  | Free-atom superposition energy             :        0.028 s           0.027 s
  | Total energy evaluation                    :        0.001 s           0.000 s

  Partial memory accounting:
  | Current value for overall tracked memory usage:
  |   Minimum:        5.469 MB (on task  1)
  |   Maximum:        5.492 MB (on task  0)
  |   Average:        5.480 MB
  | Peak value for overall tracked memory usage:
  |   Minimum:       10.094 MB (on task  4 after allocating wave)
  |   Maximum:       10.699 MB (on task  0 after allocating wave)
  |   Average:       10.321 MB
  | Largest tracked array allocation so far:
  |   Minimum:        2.376 MB (hamiltonian_shell on task  4)
  |   Maximum:        2.848 MB (hamiltonian_shell on task 13)
  |   Average:        2.555 MB
  Note:  These values currently only include a subset of arrays which are explicitly tracked.
  The "true" memory usage will be greater.
------------------------------------------------------------

------------------------------------------------------------
          Begin self-consistency iteration #    1

  Date     :  20201005, Time     :  084902.954
------------------------------------------------------------
  Evaluating new KS density using the density matrix
  Evaluating density matrix
  Finished density matrix calculation
  | Time :     0.005 s
  Time summed over all CPUs for getting density from density matrix: real work       19.069 s, elapsed       23.927 s
  Integration grid: deviation in total charge (<rho> - N_e) =  -4.149570E-12
  Pulay mixing of updated and previous charge densities.
  Renormalizing the density to the exact electron count on the 3D integration grid.
  | Formal number of electrons (from input files) :     228.0000000000
  | Integrated number of electrons on 3D grid     :     227.9993441107
  | Charge integration error                      :      -0.0006558893
  | Normalization factor for density and gradient :       1.0000028767

  Evaluating partitioned Hartree potential by multipole expansion.
  | Original multipole sum: apparent total charge =  -0.194622E-12
  | Sum of charges compensated after spline to logarithmic grids =  -0.665419E-06
  | Analytical far-field extrapolation by fixed multipoles:
  | Hartree multipole sum: apparent total charge =  -0.194753E-12
  Summing up the Hartree potential.
  Time summed over all CPUs for potential: real work        6.632 s, elapsed        8.513 s
  | RMS charge density error from multipole expansion :   0.624365E-03
  | Average real-space part of the electrostatic potential :      0.01900331 eV

  Integrating Hamiltonian matrix: batch-based integration.
  Time summed over all CPUs for integration: real work        7.934 s, elapsed        9.802 s

  Updating Kohn-Sham eigenvalues and eigenvectors using ELSI and the ELPA eigensolver.
  Starting ELPA eigensolver
  Finished transformation to standard eigenproblem
  | Time :     0.006 s
  Finished solving standard eigenproblem
  | Time :     0.033 s
  Finished back-transformation of eigenvectors
  | Time :     0.004 s

  Obtaining occupation numbers and chemical potential using ELSI.
  | Chemical potential (Fermi level):    -5.53560442 eV
  Writing Kohn-Sham eigenvalues.
  K-point:       1 at    0.000000    0.000000    0.000000 (in units of recip. lattice)

  State    Occupation    Eigenvalue [Ha]    Eigenvalue [eV]
      1       2.00000       -3583.249551       -97505.18130
      2       2.00000       -3583.249551       -97505.18130
      3       2.00000        -591.288279       -16089.77271
      4       2.00000        -591.288279       -16089.77271
      5       2.00000        -505.947919       -13767.54336
      6       2.00000        -505.947919       -13767.54336
      7       2.00000        -505.947917       -13767.54331
      8       2.00000        -505.947917       -13767.54331
      9       2.00000        -505.947917       -13767.54331
     10       2.00000        -505.947917       -13767.54331
     11       2.00000        -139.818182        -3804.64631
     12       2.00000        -139.818182        -3804.64631
     13       2.00000        -115.941798        -3154.93685
     14       2.00000        -115.941798        -3154.93685
     15       2.00000        -115.941788        -3154.93657
     16       2.00000        -115.941788        -3154.93657
     17       2.00000        -115.941788        -3154.93657
     18       2.00000        -115.941788        -3154.93657
     19       2.00000         -91.726498        -2496.00501
     20       2.00000         -91.726498        -2496.00501
     21       2.00000         -91.726494        -2496.00490
     22       2.00000         -91.726494        -2496.00490
     23       2.00000         -91.726494        -2496.00490
     24       2.00000         -91.726494        -2496.00490
     25       2.00000         -91.726490        -2496.00478
     26       2.00000         -91.726490        -2496.00478
     27       2.00000         -91.726489        -2496.00475
     28       2.00000         -91.726489        -2496.00475
     29       2.00000         -88.686057        -2413.27040
     30       2.00000         -88.686057        -2413.27040
     31       2.00000         -88.686057        -2413.27040
     32       2.00000         -88.686057        -2413.27040
     33       2.00000         -31.501373         -857.19597
     34       2.00000         -31.501373         -857.19597
     35       2.00000         -23.735655         -645.88002
     36       2.00000         -23.735655         -645.88002
     37       2.00000         -23.735599         -645.87852
     38       2.00000         -23.735599         -645.87852
     39       2.00000         -23.735599         -645.87852
     40       2.00000         -23.735599         -645.87852
     41       2.00000         -14.776840         -402.09828
     42       2.00000         -14.776840         -402.09828
     43       2.00000         -14.776821         -402.09777
     44       2.00000         -14.776821         -402.09777
     45       2.00000         -14.776821         -402.09777
     46       2.00000         -14.776821         -402.09777
     47       2.00000         -14.776780         -402.09664
     48       2.00000         -14.776780         -402.09664
     49       2.00000         -14.776777         -402.09657
     50       2.00000         -14.776777         -402.09657
     51       2.00000          -7.790055         -211.97817
     52       2.00000          -7.790054         -211.97817
     53       2.00000          -7.790016         -211.97712
     54       2.00000          -7.790016         -211.97712
     55       2.00000          -5.761256         -156.77176
     56       2.00000          -5.761256         -156.77176
     57       2.00000          -5.761013         -156.76514
     58       2.00000          -5.761013         -156.76514
     59       2.00000          -5.759517         -156.72443
     60       2.00000          -5.759517         -156.72443
     61       2.00000          -5.759499         -156.72395
     62       2.00000          -5.759499         -156.72395
     63       2.00000          -5.759368         -156.72037
     64       2.00000          -5.759368         -156.72037
     65       2.00000          -5.759350         -156.71989
     66       2.00000          -5.759350         -156.71989
     67       2.00000          -5.288073         -143.89579
     68       2.00000          -5.288073         -143.89579
     69       2.00000          -4.889516         -133.05050
     70       2.00000          -4.889516         -133.05050
     71       2.00000          -4.889507         -133.05026
     72       2.00000          -4.889507         -133.05026
     73       2.00000          -4.889507         -133.05026
     74       2.00000          -4.889507         -133.05026
     75       2.00000          -4.889482         -133.04959
     76       2.00000          -4.889482         -133.04959
     77       2.00000          -4.889481         -133.04955
     78       2.00000          -4.889481         -133.04955
     79       2.00000          -4.889442         -133.04849
     80       2.00000          -4.889442         -133.04849
     81       2.00000          -4.889442         -133.04849
     82       2.00000          -4.889442         -133.04849
     83       2.00000          -3.146384          -85.61748
     84       2.00000          -3.146366          -85.61697
     85       2.00000          -3.145984          -85.60659
     86       2.00000          -3.145984          -85.60659
     87       2.00000          -3.145984          -85.60658
     88       2.00000          -3.145984          -85.60658
     89       2.00000          -0.783151          -21.31062
     90       2.00000          -0.782262          -21.28644
     91       2.00000          -0.782262          -21.28644
     92       2.00000          -0.779680          -21.21619
     93       2.00000          -0.778030          -21.17127
     94       2.00000          -0.777439          -21.15519
     95       2.00000          -0.776699          -21.13505
     96       2.00000          -0.776699          -21.13505
     97       2.00000          -0.776363          -21.12592
     98       2.00000          -0.774906          -21.08627
     99       2.00000          -0.773777          -21.05553
    100       2.00000          -0.739780          -20.13044
    101       2.00000          -0.606211          -16.49583
    102       2.00000          -0.606211          -16.49583
    103       2.00000          -0.497374          -13.53424
    104       2.00000          -0.430830          -11.72347
    105       2.00000          -0.391284          -10.64739
    106       2.00000          -0.366878           -9.98327
    107       2.00000          -0.366878           -9.98327
    108       2.00000          -0.363391           -9.88837
    109       2.00000          -0.351512           -9.56512
    110       2.00000          -0.337254           -9.17716
    111       2.00000          -0.313630           -8.53431
    112       2.00000          -0.313630           -8.53431
    113       2.00000          -0.303822           -8.26742
    114       2.00000          -0.206206           -5.61115
    115       0.00000          -0.084768           -2.30667
    116       0.00000          -0.084768           -2.30667
    117       0.00000          -0.043227           -1.17626
    118       0.00000          -0.043227           -1.17626
    119       0.00000          -0.036435           -0.99143
    120       0.00000          -0.036435           -0.99143
    121       0.00000          -0.018293           -0.49778
    122       0.00000           0.005233            0.14240
    123       0.00000           0.009846            0.26791
    124       0.00000           0.040748            1.10882
    125       0.00000           0.092677            2.52186
    126       0.00000           0.151404            4.11992
    127       0.00000           0.151404            4.11992
    128       0.00000           0.222977            6.06752
    129       0.00000           0.229495            6.24487
    130       0.00000           0.238290            6.48420
    131       0.00000           0.238290            6.48420
    132       0.00000           0.256195            6.97143
    133       0.00000           0.292529            7.96012
    134       0.00000           0.294306            8.00848
    135       0.00000           0.294306            8.00848
    136       0.00000           0.313196            8.52248
    137       0.00000           0.313668            8.53535
    138       0.00000           0.333546            9.07625
    139       0.00000           0.343407            9.34457
    140       0.00000           0.383344           10.43132
    141       0.00000           0.383344           10.43132
    142       0.00000           0.413652           11.25603
    143       0.00000           0.420873           11.45254
    144       0.00000           0.420873           11.45254
    145       0.00000           0.464494           12.63953
    146       0.00000           0.467564           12.72307
    147       0.00000           0.467564           12.72307
    148       0.00000           0.507046           13.79742
    149       0.00000           0.538107           14.64263
    150       0.00000           0.538107           14.64263
    151       0.00000           0.543902           14.80032
    152       0.00000           0.578293           15.73615
    153       0.00000           0.604749           16.45607
    154       0.00000           0.648914           17.65784
    155       0.00000           0.648914           17.65784
    156       0.00000           0.654232           17.80257
    157       0.00000           0.683185           18.59040
    158       0.00000           0.683656           18.60322
    159       0.00000           0.690607           18.79238
    160       0.00000           0.732480           19.93180
    161       0.00000           0.732480           19.93180
    162       0.00000           0.763759           20.78293
    163       0.00000           0.763759           20.78293
    164       0.00000           0.787423           21.42688
    165       0.00000           0.790453           21.50933
    166       0.00000           0.790453           21.50933
    167       0.00000           0.821157           22.34483
    168       0.00000           0.857427           23.33176
    169       0.00000           0.884753           24.07535
    170       0.00000           0.896906           24.40607
    171       0.00000           0.914752           24.89166
    172       0.00000           0.914752           24.89166
    173       0.00000           0.945324           25.72357
    174       0.00000           0.965226           26.26514
    175       0.00000           0.965226           26.26514
    176       0.00000           1.007291           27.40977
    177       0.00000           1.116544           30.38270
    178       0.00000           1.146366           31.19419
    179       0.00000           1.146366           31.19419
    180       0.00000           1.181375           32.14686
    181       0.00000           1.201984           32.70766
    182       0.00000           1.331188           36.22347
    183       0.00000           1.414281           38.48455
    184       0.00000           1.414281           38.48455
    185       0.00000           1.447805           39.39678
    186       0.00000           1.447805           39.39678
    187       0.00000           1.611250           43.84434
    188       0.00000           1.764611           48.01751
    189       0.00000           1.764611           48.01751
    190       0.00000           1.767854           48.10575

  What follows are estimated values for band gap, HOMO, LUMO, etc.
  | They are estimated on a discrete k-point grid and not necessarily exact.
  | For converged numbers, create a DOS and/or band structure plot on a denser k-grid.

  Highest occupied state (VBM) at     -5.58193972 eV (relative to internal zero)
  | Occupation number:      2.00000000
  | K-point:       2 at    0.000000    0.000000    0.333333 (in units of recip. lattice)

  Lowest unoccupied state (CBM) at    -4.17881178 eV (relative to internal zero)
  | Occupation number:      0.00000000
  | K-point:       8 at    0.333333    0.000000    0.666667 (in units of recip. lattice)

  ESTIMATED overall HOMO-LUMO gap:      1.40312793 eV between HOMO at k-point 2 and LUMO at k-point 8
  | This appears to be an indirect band gap.
  | Smallest direct gap :      1.72242061 eV for k_point 4 at    0.000000    0.333333    0.666667 (in units of recip. lattice)
  The gap value is above 0.2 eV. Unless you are using a very sparse k-point grid,
  this system is most likely an insulator or a semiconductor.

  Total energy components:
  | Sum of eigenvalues            :      -28396.11741971 Ha     -772697.66941480 eV
  | XC energy correction          :        -888.63086302 Ha      -24180.87609227 eV
[...]
    367       0.00000                      38.841668          39.119000             0.538544
    368       0.00000                      38.841668          39.119000             0.000000
    369       0.00000                      39.725501          39.540453             0.421452
    370       0.00000                      39.725501          39.540453             0.000000
    371       0.00000                      39.725501          40.324775             0.784322
    372       0.00000                      39.725501          40.324775             0.000000
    373       0.00000                      43.645163          43.840984             3.516209
    374       0.00000                      43.645163          43.840984             0.000000
    375       0.00000                      48.133212          49.163778             5.322794
    376       0.00000                      48.133212          49.163778             0.000000
    377       0.00000                      48.154983          49.632502             0.468724
    378       0.00000                      48.154983          49.632502             0.000000
    379       0.00000                      48.154983          50.651740             1.019238
    380       0.00000                      48.154983          50.651740             0.000000

  What follows are estimated values for band gap, HOMO, LUMO, etc.
  | They are estimated on a discrete k-point grid and not necessarily exact.
  | For converged numbers, create a DOS and/or band structure plot on a denser k-grid.

  Highest occupied state (VBM) at     -4.94734699 eV (relative to internal zero)
  | Occupation number:      1.00000000
  | K-point:       2 at    0.000000    0.000000    0.333333 (in units of recip. lattice)

  Lowest unoccupied state (CBM) at    -3.97645600 eV (relative to internal zero)
  | Occupation number:      0.00000000
  | K-point:       4 at    0.000000    0.333333    0.666667 (in units of recip. lattice)

  ESTIMATED overall HOMO-LUMO gap:      0.97089099 eV between HOMO at k-point 2 and LUMO at k-point 4
  | This appears to be an indirect band gap.
  | Smallest direct gap :      0.98417296 eV for k_point 2 at    0.000000    0.000000    0.333333 (in units of recip. lattice)
  The gap value is above 0.2 eV. Unless you are using a very sparse k-point grid,
  this system is most likely an insulator or a semiconductor.

  Spin-orbit coupling                                     :  max(cpu_time)    wall_clock(cpu1)
  | Computing matrix elements for SOC operator            :          2.859               2.857
  | Constructing second-variational Hamiltonian           :          0.097               0.097
  | Diagonalizing second-variational Hamiltonian          :          0.186               0.187
  | Constructing SOC-perturbed eigenvectors               :          0.018               0.018
  | Syncing data and calculating occupations              :          0.140               0.012
  | Writing out data, calculating band gaps, etc.         :          0.003               0.005
  | Total SOC time                                        :          3.180               3.177

  Partial memory accounting:
  | Current value for overall tracked memory usage:
  |   Minimum:        6.652 MB (on task  1)
  |   Maximum:        6.699 MB (on task  0)
  |   Average:        6.676 MB
  | Peak value for overall tracked memory usage:
  |   Minimum:       18.779 MB (on task  9 after allocating potential_shell)
  |   Maximum:       19.443 MB (on task  0 after allocating potential_shell)
  |   Average:       19.027 MB
  | Largest tracked array allocation so far:
  |   Minimum:        4.592 MB (soc_matrix on task  0)
  |   Maximum:        4.592 MB (soc_matrix on task  0)
  |   Average:        4.592 MB
  Note:  These values currently only include a subset of arrays which are explicitly tracked.
  The "true" memory usage will be greater.
 ------------------------------------------------------------

  ------------------------------------------------------------
                   Starting Mulliken Analysis
  ------------------------------------------------------------

  Performing scalar-relativistic Mulliken charge analysis on all atoms.
  Full analysis will be written to separate file 'Mulliken.out.no_soc'.
  Summary of the per-atom charge analysis:
  |
  |  atom       electrons          charge             l=0             l=1             l=2             l=3
  |     1       81.239522        0.760478       11.912676       25.078041       30.199308       14.049496
  |     2       81.239522        0.760478       11.912676       25.078041       30.199308       14.049496
  |     3       16.380239       -0.380239        5.868453       10.278690        0.233095
  |     4       16.380239       -0.380239        5.868453       10.278690        0.233095
  |     5       16.380239       -0.380239        5.868453       10.278690        0.233095
  |     6       16.380239       -0.380239        5.868453       10.278690        0.233095
  |
  | Total      228.000000        0.000000

  Writing Mulliken decomposition to disk ...


  Performing spin-orbit-coupled Mulliken charge analysis on all atoms.
*** output_mulliken expected pure occ_numbers
*** sum(occ_numbers) =  1.5959999999999291E+03 instead of  2.2800000000000000E+02
  Full analysis will be written to separate file 'Mulliken.out.no_soc'.
  Summary of the per-atom charge analysis:
  |
  |  atom       electrons          charge             l=0             l=1             l=2             l=3
  |     1       81.211562        0.788438       11.912779       25.047978       30.201180       14.049626
  |     2       81.211568        0.788432       11.912777       25.047984       30.201181       14.049626
  |     3       16.394217       -0.394217        5.869026       10.291766        0.233424
  |     4       16.394217       -0.394217        5.869026       10.291766        0.233425
  |     5       16.394218       -0.394218        5.869026       10.291766        0.233425
  |     6       16.394218       -0.394218        5.869026       10.291767        0.233425
  |
  | Total      228.000000        0.000000

  Writing Mulliken decomposition to disk ...

  Mulliken analysis                                       :  max(cpu_time)    wall_clock(cpu1)
  | Time for Mulliken analysis (scalar relativistic)      :          0.138               0.299
  | Time for Mulliken analysis (spin-orbit coupled)       :          0.547               0.639
  | Total time for Mulliken analysis                      :          0.685               0.938
------------------------------------------------------------
  ------------------------------------------------------------
               Starting Dielectric Calculations
  ------------------------------------------------------------

  Recalculating HOMO and LUMO levels to determine eigenstates needed for dielectric calculations...

  What follows are estimated values for band gap, HOMO, LUMO, etc.
  | They are estimated on a discrete k-point grid and not necessarily exact.
  | For converged numbers, create a DOS and/or band structure plot on a denser k-grid.

  Highest occupied state (VBM) at     -4.94734699 eV (relative to internal zero)
  | Occupation number:      1.00000000
  | K-point:       2 at    0.000000    0.000000    0.333333 (in units of recip. lattice)

  Lowest unoccupied state (CBM) at    -3.97645600 eV (relative to internal zero)
  | Occupation number:      0.00000000
  | K-point:       4 at    0.000000    0.333333    0.666667 (in units of recip. lattice)

  ESTIMATED overall HOMO-LUMO gap:      0.97089099 eV between HOMO at k-point 2 and LUMO at k-point 4
  | This appears to be an indirect band gap.
  | Smallest direct gap :      0.98417296 eV for k_point 2 at    0.000000    0.000000    0.333333 (in units of recip. lattice)
  The gap value is above 0.2 eV. Unless you are using a very sparse k-point grid,
  this system is most likely an insulator or a semiconductor.

  Index of first state to include in dielectric calculations :       185
  Index of last state to include in dielectric calculations  :       296

  Creating ScaLAPACK distribution for matrices with leading dimension n_states_window
  Calculating blocksize based on matrix dimension =          112  max_nprow =            2  max_npcol =            1
  Scalapack blocksize set to:           16

  Allocating memory for main dielectric-related matrices...
  Allocating        0.000 MB for omega_plasma_sq
  Allocating        0.092 MB for interband_polarizability
  Allocating        0.092 MB for intraband_polarizability
  Allocating        0.092 MB for dielectric
  Allocating        0.046 MB for absorption_coeff
  Allocating        1.531 MB for mommat_full_x_up
  Allocating        1.531 MB for mommat_full_x_low
  Allocating        1.531 MB for mommat_full_y_up
  Allocating        1.531 MB for mommat_full_y_low
  Allocating        1.531 MB for mommat_full_z_up
  Allocating        1.531 MB for mommat_full_z_low
  Allocating        0.290 MB for moment_TZ

  Calculating p_x matrix elements...
  Integrating real-space momentum matrix: batch-based integration.
  Time summed over all CPUs for integration: real work       18.101 s, elapsed       22.338 s

  Calculating p_y matrix elements...
  Integrating real-space momentum matrix: batch-based integration.
  Time summed over all CPUs for integration: real work       18.071 s, elapsed       22.282 s

  Calculating p_z matrix elements...
  Integrating real-space momentum matrix: batch-based integration.
  Time summed over all CPUs for integration: real work       17.919 s, elapsed       22.143 s

  Calculating dielectric tensor elements...

  Summary for dielectric component #  x_x
  | Broadening parameters    :       1.00000E-01 eV (Lorentzian)
  | Plasma frequency         :       1.24393E-06 eV
  | Minimum omega value      :       1.00000E-02 eV
  | Epsilon at minimum omega :       1.31801E+01


  Summary for dielectric component #  y_y
  | Broadening parameters    :       1.00000E-01 eV (Lorentzian)
  | Plasma frequency         :       1.44405E-06 eV
  | Minimum omega value      :       1.00000E-02 eV
  | Epsilon at minimum omega :       1.31798E+01


  Summary for dielectric component #  z_z
  | Broadening parameters    :       1.00000E-01 eV (Lorentzian)
  | Plasma frequency         :       1.65838E-03 eV
  | Minimum omega value      :       1.00000E-02 eV
  | Epsilon at minimum omega :       1.55970E+01


  Summary for dielectric component #  x_y
  | Broadening parameters    :       1.00000E-01 eV (Lorentzian)
  | Plasma frequency         :       1.32393E-06 eV
  | Minimum omega value      :       1.00000E-02 eV
  | Epsilon at minimum omega :       1.68004E-04


  Summary for dielectric component #  x_z
  | Broadening parameters    :       1.00000E-01 eV (Lorentzian)
  | Plasma frequency         :       1.62176E-05 eV
  | Minimum omega value      :       1.00000E-02 eV
  | Epsilon at minimum omega :      -3.63878E-04


  Summary for dielectric component #  y_z
  | Broadening parameters    :       1.00000E-01 eV (Lorentzian)
  | Plasma frequency         :       1.44015E-05 eV
  | Minimum omega value      :       1.00000E-02 eV
  | Epsilon at minimum omega :      -5.32280E-04

  Dielectric calculations                                 :  max(cpu_time)    wall_clock(cpu1)
  | Time for real-space momentum matrix integration       :          2.427               2.425
  | Time for calculating momentum matrix elements         :          0.283               1.625
  | Time for plasma frequency and interband contributions :          1.860               1.859
  | Time for syncing and postprocessing                   :          0.167               0.750
  | Total time for dielectric calculations                :          4.737               6.660

  Partial memory accounting:
  | Current value for overall tracked memory usage:
  |   Minimum:        6.652 MB (on task  1)
  |   Maximum:        6.699 MB (on task  0)
  |   Average:        6.676 MB
  | Peak value for overall tracked memory usage:
  |   Minimum:       21.310 MB (on task  9 after allocating work_ovl)
  |   Maximum:       21.971 MB (on task  0 after allocating work_ovl)
  |   Average:       21.550 MB
  | Largest tracked array allocation so far:
  |   Minimum:        4.592 MB (soc_matrix on task  0)
  |   Maximum:        4.592 MB (soc_matrix on task  0)
  |   Average:        4.592 MB
  Note:  These values currently only include a subset of arrays which are explicitly tracked.
  The "true" memory usage will be greater.
------------------------------------------------------------

------------------------------------------------------------------------------
  Final output of selected total energy values:

  The following output summarizes some interesting total energy values
  at the end of a run (AFTER all relaxation, molecular dynamics, etc.).

  | Total energy of the DFT / Hartree-Fock s.c.f. calculation      :       -1223831.140820654 eV
  | Final zero-broadening corrected energy (caution - metals only) :       -1223831.140820654 eV
  | Total energy after non-SC SOC correction (DO NOT USE)          :       -1223854.273165817 eV
  | For reference only, the value of 1 Hartree used in FHI-aims is :             27.211384500 eV
  | For reference only, the overall average (free atom contribution
  | + realspace contribution) of the electrostatic potential after
  | s.c.f. convergence is                                          :            -16.043521352 eV

  Before relying on these values, please be sure to understand exactly which
  total energy value is referred to by a given number. Different objects may
  all carry the same name 'total energy'. Definitions:

  Total energy of the DFT / Hartree-Fock s.c.f. calculation:
  | Note that this energy does not include ANY quantities calculated after the
  | s.c.f. cycle, in particular not ANY RPA, MP2, etc. many-body perturbation terms.

  Final zero-broadening corrected energy:
  | For metallic systems only, a broadening of the occupation numbers at the Fermi
  | level can be extrapolated back to zero broadening by an electron-gas inspired
  | formula. For all systems that are not real metals, this value can be
  | meaningless and should be avoided.

------------------------------------------------------------------------------
  Methods described in the following list of references were used in this FHI-aims run.
  If you publish the results, please make sure to cite these reference if they apply.
  FHI-aims is an academic code, and for our developers (often, Ph.D. students
  and postdocs), scientific credit in the community is essential.
  Thank you for helping us!

  For any use of FHI-aims, please cite:

    Volker Blum, Ralf Gehrke, Felix Hanke, Paula Havu, Ville Havu,
    Xinguo Ren, Karsten Reuter, and Matthias Scheffler
    'Ab initio molecular simulations with numeric atom-centered orbitals'
    Computer Physics Communications 180, 2175-2196 (2009)
    http://dx.doi.org/10.1016/j.cpc.2009.06.022


  The provided symmetry information was generated with SPGlib:

    Atsushi Togo, Yusuke Seto, Dimitar Pashov
    SPGlib 1.7.3 obtained from http://spglib.sourceforge.net
    Copyright (C) 2008 Atsushi Togo


  For second-variational spin-orbit coupling used in your run, please cite:

    William P. Huhn and Volker Blum,
    'One-hundred-three compound band-structure benchmark of post-self-consistent'
    'spin-orbit coupling treatments in density functional theory'
    Phys. Rev. Materials 1, 033803 (2017).


  The ELSI infrastructure was used in your run to solve the Kohn-Sham electronic structure.
  Please check out http://elsi-interchange.org to learn more.
  If scalability is important for your project, please acknowledge ELSI by citing:

    V. W-z. Yu, F. Corsetti, A. Garcia, W. P. Huhn, M. Jacquelin, W. Jia,
    B. Lange, L. Lin, J. Lu, W. Mi, A. Seifitokaldani, A. Vazquez-Mayagoitia,
    C. Yang, H. Yang, and V. Blum
    'ELSI: A unified software interface for Kohn-Sham electronic structure solvers'
    Computer Physics Communications 222, 267-285 (2018).
    http://dx.doi.org/10.1016/j.cpc.2017.09.007


  For the real-space grid partitioning and parallelization used in this calculation, please cite:

    Ville Havu, Volker Blum, Paula Havu, and Matthias Scheffler,
    'Efficient O(N) integration for all-electron electronic structure calculation'
    'using numerically tabulated basis functions'
    Journal of Computational Physics 228, 8367-8379 (2009).
    http://dx.doi.org/10.1016/j.jcp.2009.08.008

  Of course, there are many other important community references, e.g., those cited in the
  above references. Our list is limited to references that describe implementations in the
  FHI-aims code. The reason is purely practical (length of this list) - please credit others as well.

 * A warning was issued further up regarding the accuracy of onsite integrals.
   An integral with a negative eigenvalue was among the flagged integrals.
   In most standard situations, this warning is probably harmless.
   If needed, this can be verified by adjusting the radial_multiplier flag.

------------------------------------------------------------
          Leaving FHI-aims.
          Date     :  20201005, Time     :  084943.002

          Computational steps:
          | Number of self-consistency cycles          :           16
          | Number of SCF (re)initializations          :            1

          Detailed time accounting                     :  max(cpu_time)    wall_clock(cpu1)
          | Total time                                 :       40.962 s          41.761 s
          | Preparation time                           :        0.527 s           0.526 s
          | Boundary condition initalization           :        0.105 s           0.106 s
          | Grid partitioning                          :        0.092 s           0.092 s
          | Preloading free-atom quantities on grid    :        0.151 s           0.152 s
          | Free-atom superposition energy             :        0.028 s           0.027 s
          | Total time for integrations                :        6.394 s           6.384 s
          | Total time for solution of K.-S. equations :        0.857 s           0.848 s
          | Total time for density update              :       13.845 s          13.817 s
          | Total time for mixing & preconditioning    :        3.065 s           3.056 s
          | Total time for Hartree multipole update    :        0.048 s           0.041 s
          | Total time for Hartree multipole sum       :        5.761 s           5.748 s
          | Total time for total energy evaluation     :        0.017 s           0.005 s
          | Total time for scaled ZORA corrections     :        0.000 s           0.000 s
          | Total time for perturbative SOC            :        3.180 s           3.177 s
          | Total time for Mulliken analysis           :        0.940 s           0.938 s
          | Total time for dielectric calculations     :        5.170 s           6.660 s

          Partial memory accounting:
          | Residual value for overall tracked memory usage across tasks:     0.000000 MB (should be 0.000000 MB)
          | Peak values for overall tracked memory usage:
          |   Minimum:       21.310 MB (on task  9 after allocating work_ovl)
          |   Maximum:       21.971 MB (on task  0 after allocating work_ovl)
          |   Average:       21.550 MB
          | Largest tracked array allocation:
          |   Minimum:        4.592 MB (soc_matrix on task  0)
          |   Maximum:        4.592 MB (soc_matrix on task  0)
          |   Average:        4.592 MB
          Note:  These values currently only include a subset of arrays which are explicitly tracked.
          The "true" memory usage will be greater.

          Have a nice day.
------------------------------------------------------------
